Biophysical Journal

Volume 87

October 2004

2647­2655

2647

Tertiary Structure Predictions on a Comprehensive Benchmark of Medium to Large Size Proteins
Yang Zhang and Jeffrey Skolnick
Center of Excellence in Bioinformatics, University at Buffalo, Buffalo, New York 14203

ABSTRACT We evaluate tertiary structure predictions on medium to large size proteins by TASSER, a new algorithm that assembles protein structures through rearranging the rigid fragments from threading templates guided by a reduced Ca and side-chain based potential consistent with threading based tertiary restraints. Predictions were generated for 745 proteins 201­ 300 residues in length that cover the Protein Data Bank (PDB) at the level of 35% sequence identity. With homologous proteins excluded, in 365 cases, the templates identified by our threading program, PROSPECTOR_3, have a root-mean-square ° deviation (RMSD) to native , 6.5 A, with .70% alignment coverage. After TASSER assembly, in 408 cases the best of the top ° five full-length models has a RMSD , 6.5 A. Among the 745 targets are 18 membrane proteins, with one-third having ° a predicted RMSD , 5.5 A. For all representative proteins less than or equal to 300 residues that have corresponding multiple NMR structures in the Protein Data Bank, 20% of the models generated by TASSER are closer to the NMR structure centroid than the farthest individual NMR model. These results suggest that reasonable structure predictions for nonhomologous large size proteins can be automatically generated on a proteomic scale, and the application of this approach to structural as well as functional genomics represent promising applications of TASSER.

INTRODUCTION The protein structure prediction problem, that is, deducing the tertiary structure of a protein from its primary amino acid sequence, has attracted considerable interest in this postgenomic era (Baker and Sali, 2001; Skolnick et al., 2000a). At present, the success rate of structure prediction is dictated by two factors: First, the structure of smaller proteins is easier to predict than those of larger proteins. Given secondary structure assignments (that can be deduced from sequence alone with more than 80% accuracy using state-ofthe-art predictors; Jones, 1999; Karplus et al., 1998), the number of ways to assemble the secondary structure blocks into tertiary models increases exponentially with the increasing number of such blocks. Second, since in principle similar sequences have similar folds (Holm and Sander, 1996), solved homologous protein structures can be exploited to greatly increase the accuracy of the predicted models (Marti-Renom et al., 2000). Therefore, in benchmarking tests to establish the applicability of an approach to weakly/nonhomologous proteins, such homologous structures should be carefully excluded. Until now, most benchmark tests of protein structure prediction algorithms focused on small to medium size proteins. For example, based on an ab initio approach designed to globally optimize their potential energy function, Scheraga et al. could build models of root-mean-square ° deviation (RMSD) to native below 6 A for protein fragments of up to 61 residues (Liwo et al., 1999). Using ROSETTA, Baker et al. report 73 successful structure predictions out of 172 target proteins with lengths below 150 residues, with ° a RMSD , 7 A in the top five models (Simons et al., 2001). In recent works, we developed a threading template assembly/refinement approach, TASSER, and benchmarked TASSER on a comprehensive benchmark set of 1489 singledomain proteins in the Protein Data Bank (PDB) with length below 200 residues. We find that 990 targets can be folded ° by the approach; i.e., they have a RMSD , 6.5 A in at least one of the top five models (Zhang and Skolnick, 2004a). Despite these important efforts, structure prediction on larger proteins with length greater than 200 residues, which is the range of protein lengths adopted by many enzymes and other functionally important proteins, has not previously been systematically explored. Although the Critical Assessment of Techniques for Protein Structure Prediction (CASP) provides a periodic and critical test of all size ranges of proteins (Moult et al., 2001, 2003), because of the relatively small number of targets in various specific categories, a comprehensive general trend still remains to be established. In this work, we employ a representative benchmark set of all structures in the PDB ranging from 201 to 300 residues in length and present the results of the large-scale testing of TASSER for tertiary structure prediction on these medium to large size proteins. For the first time, folding simulations of multiple-domain proteins and membrane proteins are examined in a series of systematic tests. Finally, a direct comparison of the accuracy of the TASSER predicted models to the spatial uncertainty of NMR experimental structures is made.

METHODS
Submitted May 3, 2004, and accepted for publication July 1, 2004. Address reprint requests to Jeffrey Skolnick, E-mail: skolnick@buffalo.edu. Ó 2004 by the Biophysical Society 0006-3495/04/10/2647/09 $2.00 The threading template assembly/refinement procedure, TASSER, consists of threading template identification, fragment assembly, and final model combination (Zhang and Skolnick, 2004a). A flowchart is presented in Fig. 1. doi: 10.1529/biophysj.104.045385

2648

Zhang and Skolnick

TASSER force field
A protein's conformation is described by its Ca atoms and side-chain centers of mass (SG), called the CAS model. The force field employed in TASSER modeling consists of three classes of terms: 1), statistical potentials from the PDB database (Kolinski and Skolnick, 1998; Zhang et al., 2003), including long-range SG-pair interactions, local Ca correlations, hydrogen-bond, and hydrophobic burial interactions; 2), propensities for predicted secondary structures from PSIPRED (Jones, 1999); and 3), protein specific SG-pair potentials and tertiary contact restraints extracted from the threading templates by PROSPECTOR_3 (Skolnick et al., 2004). The combination of all the energy terms was optimized by maximizing the correlation between the CAS energy and RMSD of decoy structures to native, on the basis of 100 training proteins outside the benchmark test set, each with 60,000 structure decoys (Zhang et al., 2003). Compared with previous energy potential (Zhang et al., 2003; Zhang and Skolnick, 2004a), to increase the hydrogen-bond geometrical specificity, the hydrogen bond used in this work is constructed by including backbone N and CO groups rather than using just the Ca approximation. Protein specific pair interactions are derived on the basis of a freely jointed chain model simulation (our unpublished results) rather than using the quasichemical approximation (Skolnick et al., 2000b). These changes increase the correlation of the energy with RMSD (the average correlation coefficient between energy and RMSD in the decoy structures of 100 training proteins increases from 0.69 to 0.75); this also improved the performance of TASSER simulations. FIGURE 1 Flowchart of the TASSER structure prediction methodology that consists of template identification by threading, fragment assembly, and fold selection.

On- and off-lattice model and structure assembly
A protein chain in TASSER modeling is divided into aligned and unaligned regions based on its PROSPECTOR_3 alignments, where the aligned regions are modeled off lattice for maximal accuracy and the unaligned regions are simulated on a cubic lattice system for computational efficiency (Fig. 2).

Threading
The structure templates for a query sequence are selected from the PDB library (Berman et al., 2000) by our threading program PROSPECTOR_3 (Skolnick et al., 2004). The program is an iterative sequence/structure alignment approach, and all the alignments are generated using a Needleman-Wunsch type of global alignment algorithm (Needleman and Wunsch, 1970). The scoring function of PROSPECTOR_3 consists of close and distant sequence profiles (Skolnick and Kihara, 2001), secondary structure propensities from PSIPRED (Jones, 1999), pair potentials (Skolnick et al., 2000b), and consensus contact predictions generated from the alignments in the previous threading iterations. Depending on the different methods used to generate the pair potentials (quasichemical based, local sequence fragment based, and orientation independent, or local sequence fragment based and orientation dependent) and the ways of calculating the Z-score alignment significance (the energy in standard deviation units relative to mean), there are six classes of alignments returned at the end of PROSPECTOR_3 iterations. To select the final template alignments for TASSER assembly, we establish two sets of Z-score cutoffs based on benchmarking statistics (Skolnick et al., 2004): Zstruct, above which ;95% of templates have their ° best structure alignment with a RMSD to native , 6.5 A over the aligned regions, and Zgood, above which ;80% of threading-predicted alignments ° have a RMSD , 6.5 A in aligned regions. If a target has a template with a Z-score . Zgood or two templates with consensus alignments both having a Z-score . Zstruct, the target is assigned to the Easy set (note that Easy does not imply the results are trivially found; in a benchmark test, approximately half the proteins in the Easy set are not identified by PSI-BLAST; Frishman et al., 2003; Kawabata et al., 2002; Zhang and Skolnick, 2004a); if a target has a single template (or has multiple templates lacking a consensus structure) where Zgood . Z-score . Zstruct, the target is assigned as to the Medium set; all others are Hard targets. Biophysical Journal 87(4) 2647­2655

FIGURE 2 Schematic representation of a piece of polypeptide chain in the combined on- and off-lattice CAS model. Each residue is described by its Ca and side-chain center of mass (SG). Although Ca's of unaligned residues (white) are confined to the underlying cubic lattice system with a lattice ° space of 0.87 A, Ca's of aligned residues (yellow) are excised from threading templates and traced off lattice. SGs are always off lattice (red) and determined using a two-rotamer approximation (Zhang et al., 2003).

Structure Prediction for Large Proteins For a given template, an initial full-length model is built up by connecting the continuous template fragments (greater than or equal to five residues) by ° a random walk of Ca­Ca bond vectors of variable lengths from 3.26 A to ° 4.35 A. Only excluded volume and geometric constraints of virtual Ca­Ca bond angles (65°­165°) are considered during the initial model building procedure. The side-chain center of mass is determined by a two-rotamer approximation that depends on whether the local backbone configuration is extended or compact. To guarantee that the last step of this random walk can quickly arrive at the first Ca of the next template fragment, the distance l between the current Ca and the first Ca of the next template fragment is checked at each step of the random walk, and only walks with l , 3.54n are allowed, where n is the number of remaining Ca­Ca bonds in the walk. If a template gap is too big to be spanned by a specified number of unaligned residues, a big Ca­Ca bond will remain at the end of the random walk, and a spring-like force that acts to draw sequential fragments close will be applied in subsequent Monte Carlo simulations until a physically reasonable bond length is achieved. The initial full-length models are submitted to parallel hyperbolic Monte Carlo sampling (Zhang et al., 2002) for assembly/refinement. Two kinds of conformational updates are implemented: Off-lattice movements of the aligned regions involve rigid fragment translations and rotations that are controlled by the three Euler angles. The fragment length normalizes the movement amplitude so that the acceptance rate is approximately constant for different size fragments. The lattice confined residues are subjected to two to six bond movements and multibond sequence shifts (Zhang et al., 2003). Overall, the tertiary topology varies by the rearrangement of the continuously aligned substructures, where the local conformation of the off-lattice substructures remains unchanged during assembly. Both movement of the aligned and the gap regions are guided by the same CAS force field.

2649

RESULTS AND DISCUSSION Benchmark protein set To construct a benchmark set, we group all protein entries in the PDB having from 201 to 300 residues in length based on their sequence similarity with a pairwise sequence identity cutoff of 35% and randomly select one protein from each group. The resulting representative benchmark set includes 745 proteins: 112, 132, and 501 of them are a-, b-, and abproteins, respectively; 258 of them have more than one domain according to DomainPhaser (Guo et al., 2003); and 18 are transmembrane proteins. The list of target proteins can be found on our website at http://www.bioinformatics.buffalo. edu/abinitio/745. Threading After homologous template proteins with sequence identity .30% are excluded from the library, 593 target proteins are assigned by PROSPECTOR_3 as the Easy set. The average coverage of template alignments for these Easy targets is ° 83%, with an average RMSD to native of 5.9 A on the aligned regions (see Table 1). There are 418 Easy targets that ° have a RMSD to native below 6.5 A; 363 of them have alignment coverage higher than 70%. There are 150 Medium targets identified by PROSPECTOR_3 where the average sequence identity between target and template is 11.5%. In Medium set targets, the global fold of the identified template (as assessed by structural superposition) is generally correct (Skolnick et al., 2004), but often there are significant alignment errors. As expected, the threading alignments only focus on some local substructures for the targets in this category. The average threading alignment coverage is 45%, and in 45 cases the aligned substruc° tures have a RMSD to native below 6.5 A (Table 1).

Clustering
Forty replicas are employed in the Monte Carlo simulation. Structures generated in the 14 lowest temperature replicas are submitted to an iterative structural clustering program, SPICKER (Zhang and Skolnick, 2004b), for clustering. The final models are combined from the clustered structures and ranked by the structure density D, i.e., D ¼ M=ÆRMSDæ, where M is the multiplicity of structures in a SPICKER cluster and ÆRMSDæ denotes the average RMSD of the structures to the cluster centroid.

TABLE 1 Summary of threading results from PROSPECTOR_3 and final models by TASSER ÆRMSD to nativeæ§ N* Easy set Medium set Hard set Single domain Multiple domain Membrane proteins All 593 150 2 487 258 18 745 (80%) (20%) (0.3%) (65%) (35%) (2%) Template selectedy Top two plus consensus Top five Top 20 Æcovali æz 83% 45% 41% 76% 73% 71% 75% Tali 5.9 12.4 17.3 7.2 7.4 10.7 7.2 ° A ° A ° A ° A ° A ° A ° A Mali 4.7 9.3 13.1 5.4 6.1 7.5 5.6 ° A ° A ° A ° A ° A ° A ° A Mful 6.4 15.7 18.1 7.7 9.5 12.0 8.3 ° A ° A ° A ° A ° A ° A ° A Tali 418 45 0 307 156 8 463 (363) (2) (0) (258) (107) (5) (365) Nfold{ Mali 481 71 0 377 175 10 552 Mful 396 12 0 296 112 6 408 (67%) (8%) (0%) (61%) (43%) (33%) (55%)

*Number of the target proteins in each category and the percentage in whole benchmark. y Number of templates used in the TASSER assembly procedure. z Average alignment coverage for the best template that has the lowest RMSD to native. § Average RMSD to native: Tali, the best template with RMSD calculated over aligned regions; Mali, the best model in top five with RMSD calculated over the same aligned regions as that in the threading template; and Mful, the best model in top five with RMSD calculated over entire chain. { ° Number of targets with RMSD to native below 6.5 A: Tali, the best template with RMSD calculated over aligned regions. The numbers in parentheses are the templates of the alignment coverage $70%; Mali, the best model in top five with RMSD calculated over the same aligned regions as that in the threading template; and Mful, the best model in top five with RMSD calculated over entire chain. The value in parentheses is the fraction of targets in the specified category. Biophysical Journal 87(4) 2647­2655

2650

Zhang and Skolnick

There are only two Hard cases (1hq0A and 1k24A) where PROSPECTOR_3 cannot identify a suitable template. Nevertheless, we still include the alignments of the highest scoring templates in the folding refinement for the Hard set targets. Although the global topology of the threading alignments are often wrong in the Hard set targets, the local fragments are still close to native in most cases, a fact that can be profitably exploited by TASSER (Zhang and Skolnick, 2004a). Summary of folding results The threading templates and alignments by PROSPECTOR_3 are taken as the initial inputs in the TASSER reassembly procedure. For the Easy targets, we take the two templates of the highest Z-score as well as their consensus substructure as an independent template. The consensus template is calculated as an average of the commonly aligned ° residues when their distances are ,5 A after superposition. For Medium and Hard targets, the top five and top 20 templates are taken, respectively. Table 1 presents a summary of the PROSPECTOR_3 threading results as well as the final models produced by TASSER. If we define a successful prediction as the one where at least one of the top five full-length models has ° a RMSD to native below 6.5 A (a statistically significant cutoff (Reva et al., 1998), but other cutoffs could be used as well), there are 396 foldable cases among the 593 Easy set ° targets (67%) with an average RMSD to native of 3.6 A. Of the 152 Medium/Hard targets, there are only 12 foldable cases. This unfortunately shows the strong correlation between the final outcome of TASSER modeling and PROSPECTOR_3 threading alignments. Among these 12 foldable cases, 10 of them (all are b- or ab-proteins, i.e., 1b5tA, 1bwzA, 1cmxA, 1e2tA, 1fs0G, 1g61A, 1gs5A, 1h8vA, 1isfA, and 1jtdB) have initial templates with incorrect

° alignments (RMSD . 8 A) or ,70% alignment coverage, demonstrating TASSER's ability to assemble big protein models from rather poor and incomplete template alignments. In Fig. 3, we show a histogram of the percentage of foldable targets at different RMSD cutoffs where we categorize the targets into single domain and multiple domain proteins. For the 487 single domain proteins, in ;61% of targets (296), the ° best of the top five models has a RMSD to native below 6.5 A. For the 258 multiple domain proteins, there are 112 targets ° having RMSD , 6.5 A in the top five models. However, in ° 172 cases, there is at least one domain with a RMSD , 6.5 A and whose average length is 114 residues. This highlights a weak point of TASSER for predicting the mutual orientation of the domains even when the individual domains have correct topology; the solution to this issue is the next major challenge facing TASSER. In the meantime, an enlarged template library including various domain orientations within the same homologous subfamily will certainly be of help for use in TASSER domain assembly (our unpublished results). The overall folding rate for the entire benchmark set is 55% (408/745). If we only count those targets greater than 250 residues in size, the success rate is ;52%, whereas the success rate for targets less than or equal to 250 residues is 58%. This weak size dependence of model quality is mainly due to the fact that the bigger targets have a higher percentage of multiple domain proteins, (i.e., 40% of the proteins greater than 250 residues in length have multiple domains, and 29% of the proteins less than or equal to 250 residues in length have multiple domains), where TASSER has a lower success rate in predicting the interdomain orientations.

Comparison with the initial template In Fig. 4, for the threading aligned regions, we show a detailed comparison between the final models and initial

FIGURE 3 Histogram of the percent of foldable targets by TASSER for single-domain and multiple domain proteins.

Biophysical Journal 87(4) 2647­2655

Structure Prediction for Large Proteins

2651

FIGURE 4 RMSD to native of the best models in top five by TASSER versus the RMSD to native of the best initial template by PROSPECTOR_3; both RMSD calculated over the same aligned regions. (a) Easy set targets; (b) Medium/Hard set targets.

template alignments. As expected, the template alignments in the Easy set have much better quality than those in the Medium/Hard set. The majority of the template alignments ° in the Easy set have a RMSD to native below 6 A (Fig. 4 a), whereas the alignments in Medium/Hard set have a quite ° ° broad RMSD distribution ranging from 1 A to more than 20 A. This highlights the threading alignment problems shown by PROSPECTOR_3 on the Medium/Hard targets, even though the majority of templates (;90%) in this category can have good structure alignments (Skolnick et al., 2004). In both cases, TASSER refined models show obvious improvements with respect to the initial templates. For example, for the initial template alignments whose RMSD is ° in the range of 4 ; 5 A, in 53% of the cases, the final models ° improvement. For those templates that show at least a 1-A have a higher RMSD to native, there tends to be relatively larger RMSD improvements. This is due to both the requirement of chain connectivity that converts geometrically nonphysical alignments into physical models and the optimized TASSER force field, which is a combination of consensus tertiary restraints from multiple templates and various statistical energy terms (Zhang et al., 2003). This optimal force field can provide better side-chain and backbone packing and is able to drive the template fragments on average closer to native in the Monte Carlo simulations. Unaligned loops/tails modeling In Fig. 5, we show the results of TASSER modeling for the unaligned loop and tail regions. Here, an unaligned loop (tail) region is defined as a piece of continuous sequence that has no coordinate assignments in the middle (terminus) of a target protein from the PROSPECTOR_3 threading alignments. There are in total 4951 unaligned loop regions ranging from 1 to 117 residues in length in all 745 target proteins. In Fig. 5 a, we show the distribution of the unaligned loops as a function of loop length, where the last point includes all the

FIGURE 5 (a and b) Size distribution of the unaligned loops and tails, with the last points including all loops (tails) of length above 25 (50) residues. The solid lines connect the data points denoting all loops and tails. The dashed lines signify those loops with good stem backbones having ° a RMSD to native below 4 A. (c and d) Average RMSD to native of the unaligned loops and tails by TASSER modeling as a function of the size of the modeled regions. RMSDlocal (h) denotes the root-mean-square deviation with direct superposition of native and the modeled regions; RMSDglobal (n) is the root-mean-square deviation after the superposition of up to five neighboring stem residues in both sides of the loops or in a single side of the ° tails. The dashed-dotted line signifies a RMSD cutoff of 6.5 A. The solid lines connect the data points denoting the results for all modeled loops/tails; the dashed lines denotes the results for the loops with good stem backbones.

loops of length greater than or equal to 25 residues. For each unaligned loop region, two types of modeling errors are calculated (Fiser et al., 2000): RMSDlocal denotes the rootmean-square deviation between the native and the modeled loop with direct superposition of the unaligned region; RMSDglobal is the root-mean-square-deviation between native and the modeled loop after superposition of up to five neighboring stem residues on each side of the loop. The value of RMSDlocal measures the modeling accuracy of the local conformation, whereas RMSDglobal measures both the accuracy of the local conformation and the global orientation of the unaligned loop regions. As shown in Fig. 5 c, TASSER has decreased model accuracy with increasing loop ° length. If we take a cutoff of 6.5 A, TASSER can handle the local conformation as assessed by RMSDlocal for an unaligned loop region up to at least 25 residues long (here we note that the last point in Fig. 5 c is an average of all the loops having the length above 25 residues). But when considering RMSDglobal, TASSER can have an average RMSD ° below 6.5 A for the loops under 12 residues. The accuracy of loop modeling is obviously influenced by the accuracy of the neighboring stem backbone. For
Biophysical Journal 87(4) 2647­2655

2652

Zhang and Skolnick TABLE 2 TASSER modeling result for 1809 unaligned loop/ tail regions of length greater than or equal to four residues Loops* RMSDglobalz Total number{ 1345 (837) 55 (55) NRMSD,1Ak ° 167 (166) NRMSD,2A ° 338 (327) NRMSD,3A ° 561 (497) NRMSD,4A ° 810 (670) NRMSD,5A ° 990 (773) NRMSD,6A ° ° ÆRMSDæ** 5.03 (4.03) A RMSDlocal§ 1345 502 887 1119 1241 1280 1314 1.82 (837) (400) (617) (744) (804) (819) (830) ° (1.47) A Tailsy RMSDglobalz RMSDlocal§ 464 3 12 28 50 73 99 ° 15.33 A 464 46 133 194 246 279 304 ° 6.38 A

example, if the distance between the two stem backbones is much larger than that in the native structure, the loop conformation will tend to be extended because of the constraint of geometric connectivity even if the force field favors a compact loop conformation and vise versa. If we only count those loops where the RMSD of the residues in the stem ° backbones is below 4 A, there are 3821 loop regions in total. The modeling results of these loop regions are shown in Fig. 5 c marked as stem filtered. They clearly have higher accuracy than if we count all loops regions, especially for the big loops because the bigger loops have more opportunities to be embedded between distorted stem backbones (see Fig. 5 a). After removing those loops of distorted stem backbones, ° TASSER can have the average RMSDglobal , 6.5A for the unaligned loop regions up to 20 residues. There are 785 unaligned regions at the N- or C-termini in the PROSPECTOR_3 alignments, with lengths ranging from 1 to 173 residues. Some of the big tails include an entire individual domain in multidomain proteins. The size distribution of the unaligned tails is presented in Fig. 5 b, with the last point including all tails greater than or equal to 50 residues. In comparison with loop modeling, because of a lack of a second spatial constraint on the free end of the tails, the orientation of the unaligned tails can be seriously misplaced, even though the local conformation can be correct. As shown in Fig. 5 d, TASSER has an average ° RMSDglobal below 6.5 A for tails under seven residues long. Here, the RMSDglobal for tails is defined as the root-meansquare deviation between the modeling region and native after a superposition of five neighboring residues on the stem of the tail. For local tail conformations, TASSER can ° generate RMSDlocal , 6.5 A for tails up to 35 residues long (Fig. 5 d ). Most of the unaligned loop and tail regions in PROSPECTOR_3 alignments are of small size (see Fig. 5, a and b), which are relatively easier to model because of the limited configuration entropy. If we only focus on the loop/tail regions greater than or equal to four residues in size, there are in total 1345 unaligned loops with an average length of 8.1 residues; there are 464 unaligned tails with an average length of 52.6 residues. We summarize in Table 2 the RMSD distribution for loops and tails with length greater than or equal to four residues. In ;42% (561/1345) of the cases, TASSER loop modeling has ° acceptable accuracy with RMSDglobal , 4 A. The average RMSDglobal and RMSDlocal for these 1345 loops are, ° respectively, 5.03 and 1.82 A. If we consider the loops with good stem backbones, 59% (497/837) of loops have ° a RMSDglobal , 4 A; and the average RMSDglobal and ° ° RMSDlocal for these 837 loops are 4.03 A and 1.47 A, respectively. For the tails, 53% (246/464) of the cases have ° a RMSDlocal below 4 A. Considering the global conformation of tails, only 11% (50/464) of the tails have RMSDglobal ° below 4 A. Again, the data show much better control of local conformation than the global orientation for tails in TASSER
Biophysical Journal 87(4) 2647­2655

*Result for unaligned loop regions. The data in parentheses is for the loops ° with RMSD of the stem residues below four A. y Result for unaligned tail regions. z RMSD between native and the modeling loops (tails) after superposition of up to five neighboring stem residues on both sides (single side) of the modeling regions if applicable. § RMSD between native and the modeling loops/tails with direct superposition in the modeling regions. { Total number of the modeling regions. k Number of targets with a RMSD to native below the specific threshold values. **Average values of the RMSD to native for all unaligned loop/tail regions with length greater than or equal to four residues.

modeling. This is reminiscent of the problem TASSER has with predicting domain-domain orientations.
